id_,name,formula,Tc,Pc
He,hélio,He,-268,2.3
Ne,neônio,Ne,-229,27
Ar,argônio,Ar,-123,48
Kr,kriptônio,Kr,-64,54
Xe,xenônio,Xe,17,58
H2,hidrogênio,H2,-240,13
O2,oxigênio,O2,-118,50
H2O,água,H2O,374,218
N2,nitrogênio,N2,-147,34
NH3,amônia,NH3,132,111
CO2,dióxido de carbono,CO2,31,74
metano,metano,CH4,-83,46
benzeno,benzeno,C6H6,289,49