id_,name,formula,Ka1,pKa1,Ka2,pKa2,Ka3,pKa3
H2SO4,ácido sulfúrico,H2SO4,,,1.20E-02,1.92,,
acido oxalico,ácido oxálico,(COOH)2,5.90E-03,1.23,6.50E-05,4.19,,
H2SO3,ácido sulfuroso,H2SO3,1.50E-02,1.81,1.20E-07,6.91,,
H3PO3,ácido fosforoso,H3PO3,1.00E-02,2,2.60E-07,6.59,,
H3PO4,ácido fosfórico,H3PO4,7.60E-03,2.12,6.20E-08,7.21,2.10E-13,12.68
acido tartarico,ácido tartárico,C2H4O2(COOH)2,6.00E-04,3.22,1.50E-05,4.82,,
H2CO3,ácido carbônico,H2CO3,4.30E-07,6.37,5.60E-11,10.25,,
H2S,ácido sulfídrico,H2S,1.30E-07,6.89,7.10E-15,14.15,,